LAMMPS data file via write_data, version 26 Jan 2017, timestep = 1

2 atoms
1 atom types
0  bonds
0 bond types
0 angles
0 angle types
0 dihedrals
0 dihedral types
0 impropers
0 improper types

0.0 10.0 xlo xhi
0.0 10.0 ylo yhi
0.0 10.0 zlo zhi

Masses

1 1.0

Atoms

1 0 1 0 1.0 1.0 1.0
2 0 1 0 1.01 1.0 1.0